:MDSTEP: 1
:R:
  7.5602283162E+00   7.2678346033E+00   7.5383154789E+00
  4.0633632034E+00   7.2089619796E+00   3.8669947910E+00
  7.1091870515E+00   3.4855732759E+00   3.7375786966E+00
  3.6111488732E+00   3.6579162625E+00   2.0038404605E-01
:V:
 -2.6331644748E-04  -2.5505363677E-04  -5.0175924137E-04
  2.8523698610E-04   8.9908676482E-05   6.7868402079E-04
  2.3336252984E-05  -2.2370655709E-04  -1.2882429430E-04
 -4.5256791608E-05   3.8885151737E-04  -4.8100485123E-05
:TEL:   2.0000000000E+03
:TIO:   2.0000000000E+03
