Al    ONCVPSP-4.0.1  r_core=   2.40380   2.40380   2.66112
     13.0000      3.0000      200425    zatom,zion,pspd
     8      11   2     4   600     0    pspcod,pspxc,lmax,lloc,mmax,r2well
  5.99000000  0.00000000  0.00000000    rchrg fchrg qchrg
     2     2     2     0     0    nproj
     1     1           extension_switch
   0                         2.8564159168762E+00  1.9489853629496E-01
     1  0.0000000000000E+00  2.0652368704077E-12 -3.8100911314842E-12
     2  1.0000000000000E-02  3.0213611783243E-02 -1.7413258656440E-02
     3  2.0000000000000E-02  6.0407143115775E-02 -3.4795069465226E-02
     4  3.0000000000000E-02  9.0560527662493E-02 -5.2114042071539E-02
     5  4.0000000000000E-02  1.2065372735414E-01 -6.9338901052071E-02
     6  5.0000000000000E-02  1.5066674660631E-01 -8.6438543244391E-02
     7  6.0000000000000E-02  1.8057964664013E-01 -1.0338209490989E-01
     8  7.0000000000000E-02  2.1037255993641E-01 -1.2013896867025E-01
     9  8.0000000000000E-02  2.4002570485224E-01 -1.3667892015368E-01
    10  9.0000000000000E-02  2.6951940042736E-01 -1.5297210428229E-01
    11  1.0000000000000E-01  2.9883408140384E-01 -1.6898913112674E-01
    12  1.1000000000000E-01  3.2795031347969E-01 -1.8470112124794E-01
    13  1.2000000000000E-01  3.5684880881292E-01 -2.0007976043913E-01
    14  1.3000000000000E-01  3.8551044178857E-01 -2.1509735377382E-01
    15  1.4000000000000E-01  4.1391626505650E-01 -2.2972687885813E-01
    16  1.5000000000000E-01  4.4204752584315E-01 -2.4394203817744E-01
    17  1.6000000000000E-01  4.6988568253542E-01 -2.5771731041949E-01
    18  1.7000000000000E-01  4.9741242152936E-01 -2.7102800064790E-01
    19  1.8000000000000E-01  5.2460967433145E-01 -2.8385028919191E-01
    20  1.9000000000000E-01  5.5145963489441E-01 -2.9616127911048E-01
    21  2.0000000000000E-01  5.7794477716427E-01 -3.0793904208131E-01
    22  2.1000000000000E-01  6.0404787280989E-01 -3.1916266255879E-01
    23  2.2000000000000E-01  6.2975200910067E-01 -3.2981228003829E-01
    24  2.3000000000000E-01  6.5504060689324E-01 -3.3986912925911E-01
    25  2.4000000000000E-01  6.7989743868239E-01 -3.4931557817385E-01
    26  2.5000000000000E-01  7.0430664666715E-01 -3.5813516350851E-01
    27  2.6000000000000E-01  7.2825276077802E-01 -3.6631262373553E-01
    28  2.7000000000000E-01  7.5172071660744E-01 -3.7383392928105E-01
    29  2.8000000000000E-01  7.7469587318131E-01 -3.8068630978810E-01
    30  2.9000000000000E-01  7.9716403050658E-01 -3.8685827825946E-01
    31  3.0000000000000E-01  8.1911144682628E-01 -3.9233965190755E-01
    32  3.1000000000000E-01  8.4052485551139E-01 -3.9712156954372E-01
    33  3.2000000000000E-01  8.6139148151693E-01 -4.0119650534641E-01
    34  3.3000000000000E-01  8.8169905732793E-01 -4.0455827885597E-01
    35  3.4000000000000E-01  9.0143583832063E-01 -4.0720206105452E-01
    36  3.5000000000000E-01  9.2059061746378E-01 -4.0912437640119E-01
    37  3.6000000000000E-01  9.3915273928523E-01 -4.1032310070679E-01
    38  3.7000000000000E-01  9.5711211303047E-01 -4.1079745474767E-01
    39  3.8000000000000E-01  9.7445922494084E-01 -4.1054799353561E-01
    40  3.9000000000000E-01  9.9118514958208E-01 -4.0957659117926E-01
    41  4.0000000000000E-01  1.0072815601562E+00 -4.0788642129296E-01
    42  4.1000000000000E-01  1.0227407377338E+00 -4.0548193293069E-01
    43  4.2000000000000E-01  1.0375555793471E+00 -4.0236882204541E-01
    44  4.3000000000000E-01  1.0517196048908E+00 -3.9855399849867E-01
    45  4.4000000000000E-01  1.0652269627791E+00 -3.9404554867021E-01
    46  4.5000000000000E-01  1.0780724343184E+00 -3.8885269374361E-01
    47  4.6000000000000E-01  1.0902514367564E+00 -3.8298574377033E-01
    48  4.7000000000000E-01  1.1017600249779E+00 -3.7645604764233E-01
    49  4.8000000000000E-01  1.1125948918240E+00 -3.6927593913052E-01
    50  4.9000000000000E-01  1.1227533670179E+00 -3.6145867917405E-01
    51  5.0000000000000E-01  1.1322334146906E+00 -3.5301839463328E-01
    52  5.1000000000000E-01  1.1410336295033E+00 -3.4397001374613E-01
    53  5.2000000000000E-01  1.1491532313774E+00 -3.3432919855456E-01
    54  5.3000000000000E-01  1.1565920588453E+00 -3.2411227459350E-01
    55  5.4000000000000E-01  1.1633505610475E+00 -3.1333615815993E-01
    56  5.5000000000000E-01  1.1694297884078E+00 -3.0201828150303E-01
    57  5.6000000000000E-01  1.1748313820276E+00 -2.9017651629904E-01
    58  5.7000000000000E-01  1.1795575618475E+00 -2.7782909579479E-01
    59  5.8000000000000E-01  1.1836111136324E+00 -2.6499453602280E-01
    60  5.9000000000000E-01  1.1869953748447E+00 -2.5169155650730E-01
    61  6.0000000000000E-01  1.1897142194762E+00 -2.3793900089521E-01
    62  6.1000000000000E-01  1.1917720419167E+00 -2.2375575795786E-01
    63  6.2000000000000E-01  1.1931737399444E+00 -2.0916068341864E-01
    64  6.3000000000000E-01  1.1939246969274E+00 -1.9417252306835E-01
    65  6.4000000000000E-01  1.1940307633324E+00 -1.7880983763370E-01
    66  6.5000000000000E-01  1.1934982376412E+00 -1.6309092986508E-01
    67  6.6000000000000E-01  1.1923338467786E+00 -1.4703377430722E-01
    68  6.7000000000000E-01  1.1905447261595E+00 -1.3065595021072E-01
    69  6.8000000000000E-01  1.1881383994670E+00 -1.1397457803364E-01
    70  6.9000000000000E-01  1.1851227582712E+00 -9.7006259969892E-02
    71  7.0000000000000E-01  1.1815060416040E+00 -7.9767024926245E-02
    72  7.1000000000000E-01  1.1772968156026E+00 -6.2272278350287E-02
    73  7.2000000000000E-01  1.1725039533352E+00 -4.4536757290622E-02
    74  7.3000000000000E-01  1.1671366149191E+00 -2.6574491044628E-02
    75  7.4000000000000E-01  1.1612042280431E+00 -8.3987677216424E-03
    76  7.5000000000000E-01  1.1547164689980E+00  9.9778929820744E-03
    77  7.6000000000000E-01  1.1476832443193E+00  2.8543760534083E-02
    78  7.7000000000000E-01  1.1401146731395E+00  4.7287907616319E-02
    79  7.8000000000000E-01  1.1320210703421E+00  6.6200217288227E-02
    80  7.9000000000000E-01  1.1234129306041E+00  8.5271383117173E-02
    81  8.0000000000000E-01  1.1143009134061E+00  1.0449290217341E-01
    82  8.1000000000000E-01  1.1046958290818E+00  1.2385706083244E-01
    83  8.2000000000000E-01  1.0946086259701E+00  1.4335691337398E-01
    84  8.3000000000000E-01  1.0840503787262E+00  1.6298625341417E-01
    85  8.4000000000000E-01  1.0730322778356E+00  1.8273957825713E-01
    86  8.5000000000000E-01  1.0615656203672E+00  2.0261204630010E-01
    87  8.6000000000000E-01  1.0496618019932E+00  2.2259942767702E-01
    88  8.7000000000000E-01  1.0373323102887E+00  2.4269804837393E-01
    89  8.8000000000000E-01  1.0245887193177E+00  2.6290472809923E-01
    90  8.9000000000000E-01  1.0114426854986E+00  2.8321671223969E-01
    91  9.0000000000000E-01  9.9790594473301E-01  3.0363159828046E-01
    92  9.1000000000000E-01  9.8399031076922E-01  3.2414725711292E-01
    93  9.2000000000000E-01  9.6970767476299E-01  3.4476174969829E-01
    94  9.3000000000000E-01  9.5507000598539E-01  3.6547323959627E-01
    95  9.4000000000000E-01  9.4008935361865E-01  3.8627990190774E-01
    96  9.5000000000000E-01  9.2477784957010E-01  4.0717982921657E-01
    97  9.6000000000000E-01  9.0914771222482E-01  4.2817093514941E-01
    98  9.7000000000000E-01  8.9321125104827E-01  4.4925085620177E-01
    99  9.8000000000000E-01  8.7698087194166E-01  4.7041685250563E-01
   100  9.9000000000000E-01  8.6046908324453E-01  4.9166570823557E-01
   101  1.0000000000000E+00  8.4368850227192E-01  5.1299363236909E-01
   102  1.0100000000000E+00  8.2665186226663E-01  5.3439616053036E-01
   103  1.0200000000000E+00  8.0937201964146E-01  5.5586805865614E-01
   104  1.0300000000000E+00  7.9186196138127E-01  5.7740322922692E-01
   105  1.0400000000000E+00  7.7413481247081E-01  5.9899462080640E-01
   106  1.0500000000000E+00  7.5620384321113E-01  6.2063414162694E-01
   107  1.0600000000000E+00  7.3808247628523E-01  6.4231257794884E-01
   108  1.0700000000000E+00  7.1978429343287E-01  6.6401951790560E-01
   109  1.0800000000000E+00  7.0132304159418E-01  6.8574328152767E-01
   110  1.0900000000000E+00  6.8271263838294E-01  7.0747085761153E-01
   111  1.1000000000000E+00  6.6396717675250E-01  7.2918784807137E-01
   112  1.1100000000000E+00  6.4510092872060E-01  7.5087842037513E-01
   113  1.1200000000000E+00  6.2612834802350E-01  7.7252526862790E-01
   114  1.1300000000000E+00  6.0706407157540E-01  7.9410958382097E-01
   115  1.1400000000000E+00  5.8792291961520E-01  8.1561103371685E-01
   116  1.1500000000000E+00  5.6871989443021E-01  8.3700775278858E-01
   117  1.1600000000000E+00  5.4947017755466E-01  8.5827634257485E-01
   118  1.1700000000000E+00  5.3018912535018E-01  8.7939188275354E-01
   119  1.1800000000000E+00  5.1089226288526E-01  9.0032795317376E-01
   120  1.1900000000000E+00  4.9159527604185E-01  9.2105666702027E-01
   121  1.2000000000000E+00  4.7231400178880E-01  9.4154871521725E-01
   122  1.2100000000000E+00  4.5306441657398E-01  9.6177342210823E-01
   123  1.2200000000000E+00  4.3386262279992E-01  9.8169881237763E-01
   124  1.2300000000000E+00  4.1472483336128E-01  1.0012916891070E+00
   125  1.2400000000000E+00  3.9566735423583E-01  1.0205177227862E+00
   126  1.2500000000000E+00  3.7670656513539E-01  1.0393415510255E+00
   127  1.2600000000000E+00  3.5785889823669E-01  1.0577268886439E+00
   128  1.2700000000000E+00  3.3914081502755E-01  1.0756366477327E+00
   129  1.2800000000000E+00  3.2056878131719E-01  1.0930330672270E+00
   130  1.2900000000000E+00  3.0215924047510E-01  1.1098778514452E+00
   131  1.3000000000000E+00  2.8392858497602E-01  1.1261323169909E+00
   132  1.3100000000000E+00  2.6589312634363E-01  1.1417575473458E+00
   133  1.3200000000000E+00  2.4806906359841E-01  1.1567145544242E+00
   134  1.3300000000000E+00  2.3047245032860E-01  1.1709644462973E+00
   135  1.3400000000000E+00  2.1311916051604E-01  1.1844686002459E+00
   136  1.3500000000000E+00  1.9602485326011E-01  1.1971888402485E+00
   137  1.3600000000000E+00  1.7920493655456E-01  1.2090876179678E+00
   138  1.3700000000000E+00  1.6267453028231E-01  1.2201281962600E+00
   139  1.3800000000000E+00  1.4644842860264E-01  1.2302748341962E+00
   140  1.3900000000000E+00  1.3054106191367E-01  1.2394929725580E+00
   141  1.4000000000000E+00  1.1496645858057E-01  1.2477494187470E+00
   142  1.4100000000000E+00  9.9738206625858E-02  1.2550125300327E+00
   143  1.4200000000000E+00  8.4869415583626E-02  1.2612523940528E+00
   144  1.4300000000000E+00  7.0372678722949E-02  1.2664410054779E+00
   145  1.4400000000000E+00  5.6260035848579E-02  1.2705524377571E+00
   146  1.4500000000000E+00  4.2542936888126E-02  1.2735630088719E+00
   147  1.4600000000000E+00  2.9232206474843E-02  1.2754514400410E+00
   148  1.4700000000000E+00  1.6338009733729E-02  1.2761990063464E+00
   149  1.4800000000000E+00  3.8698194757712E-03  1.2757896782812E+00
   150  1.4900000000000E+00 -8.1636149989239E-03  1.2742102532550E+00
   151  1.5000000000000E+00 -1.9754297293928E-02  1.2714504761405E+00
   152  1.5100000000000E+00 -3.0895011316885E-02  1.2675031479944E+00
   153  1.5200000000000E+00 -4.1579346507238E-02  1.2623642221392E+00
   154  1.5300000000000E+00 -5.1801720720462E-02  1.2560328868599E+00
   155  1.5400000000000E+00 -6.1557400608535E-02  1.2485116340334E+00
   156  1.5500000000000E+00 -7.0842519348177E-02  1.2398063130824E+00
   157  1.5600000000000E+00 -7.9654091581131E-02  1.2299261697238E+00
   158  1.5700000000000E+00 -8.7990025444654E-02  1.2188838690621E+00
   159  1.5800000000000E+00 -9.5849131585234E-02  1.2066955026644E+00
   160  1.5900000000000E+00 -1.0323112906400E-01  1.1933805793421E+00
   161  1.6000000000000E+00 -1.1013664807885E-01  1.1789619994568E+00
   162  1.6100000000000E+00 -1.1656722944526E-01  1.1634660126597E+00
   163  1.6200000000000E+00 -1.2252532079530E-01  1.1469221590713E+00
   164  1.6300000000000E+00 -1.2801426947261E-01  1.1293631940027E+00
   165  1.6400000000000E+00 -1.3303831211897E-01  1.1108249964198E+00
   166  1.6500000000000E+00 -1.3760256096741E-01  1.0913464614436E+00
   167  1.6600000000000E+00 -1.4171298687459E-01  1.0709693772811E+00
   168  1.6700000000000E+00 -1.4537639914461E-01  1.0497382870729E+00
   169  1.6800000000000E+00 -1.4860042221431E-01  1.0277003362376E+00
   170  1.6900000000000E+00 -1.5139346928870E-01  1.0049051059821E+00
   171  1.7000000000000E+00 -1.5376471303277E-01  9.8140443373694E-01
   172  1.7100000000000E+00 -1.5572405344340E-01  9.5725222135537E-01
   173  1.7200000000000E+00 -1.5728208304169E-01  9.3250423199780E-01
   174  1.7300000000000E+00 -1.5845004954206E-01  9.0721787669500E-01
   175  1.7400000000000E+00 -1.5923981616952E-01  8.8145199165382E-01
   176  1.7500000000000E+00 -1.5966381981082E-01  8.5526660743251E-01
   177  1.7600000000000E+00 -1.5973502719809E-01  8.2872271116944E-01
   178  1.7700000000000E+00 -1.5946688933591E-01  8.0188200309948E-01
   179  1.7800000000000E+00 -1.5887329439309E-01  7.7480664863646E-01
   180  1.7900000000000E+00 -1.5796851929039E-01  7.4755902733534E-01
   181  1.8000000000000E+00 -1.5676718022305E-01  7.2020148007683E-01
   182  1.8100000000000E+00 -1.5528418236406E-01  6.9279605583765E-01
   183  1.8200000000000E+00 -1.5353466899907E-01  6.6540425942211E-01
   184  1.8300000000000E+00 -1.5153397034747E-01  6.3808680153516E-01
   185  1.8400000000000E+00 -1.4929755232653E-01  6.1090335257307E-01
   186  1.8500000000000E+00 -1.4684096551575E-01  5.8391230149540E-01
   187  1.8600000000000E+00 -1.4417979457764E-01  5.5717052112172E-01
   188  1.8700000000000E+00 -1.4132960838853E-01  5.3073314116714E-01
   189  1.8800000000000E+00 -1.3830591112864E-01  5.0465333029400E-01
   190  1.8900000000000E+00 -1.3512409457497E-01  4.7898208841149E-01
   191  1.9000000000000E+00 -1.3179939183311E-01  4.5376805040308E-01
   192  1.9100000000000E+00 -1.2834683273544E-01  4.2905730240039E-01
   193  1.9200000000000E+00 -1.2478120112252E-01  4.0489321165485E-01
   194  1.9300000000000E+00 -1.2111699421329E-01  3.8131627098434E-01
   195  1.9400000000000E+00 -1.1736838425627E-01  3.5836395869137E-01
   196  1.9500000000000E+00 -1.1354918263998E-01  3.3607061476214E-01
   197  1.9600000000000E+00 -1.0967280662543E-01  3.1446733406440E-01
   198  1.9700000000000E+00 -1.0575224884662E-01  2.9358187716327E-01
   199  1.9800000000000E+00 -1.0180004970856E-01  2.7343859927645E-01
   200  1.9900000000000E+00 -9.7828272792980E-02  2.5405839778066E-01
   201  2.0000000000000E+00 -9.3848483363599E-02  2.3545867857538E-01
   202  2.0100000000000E+00 -8.9871730042961E-02  2.1765334149865E-01
   203  2.0200000000000E+00 -8.5908529712903E-02  2.0065278487740E-01
   204  2.0300000000000E+00 -8.1968855669944E-02  1.8446392917922E-01
   205  2.0400000000000E+00 -7.8062129046631E-02  1.6909025962106E-01
   206  2.0500000000000E+00 -7.4197213489018E-02  1.5453188747547E-01
   207  2.0600000000000E+00 -7.0382413059198E-02  1.4078562969968E-01
   208  2.0700000000000E+00 -6.6625473311837E-02  1.2784510640440E-01
   209  2.0800000000000E+00 -6.2933585473198E-02  1.1570085556954E-01
   210  2.0900000000000E+00 -5.9313393630572E-02  1.0434046430410E-01
   211  2.1000000000000E+00 -5.5771004822845E-02  9.3748715856033E-02
   212  2.1100000000000E+00 -5.2312001901549E-02  8.3907751465447E-02
   213  2.1200000000000E+00 -4.8941459015967E-02  7.4797246071942E-02
   214  2.1300000000000E+00 -4.5663959558457E-02  6.6394596796235E-02
   215  2.1400000000000E+00 -4.2483616389654E-02  5.8675123031573E-02
   216  2.1500000000000E+00 -3.9404094150624E-02  5.1612276916016E-02
   217  2.1600000000000E+00 -3.6428633452841E-02  4.5177862874782E-02
   218  2.1700000000000E+00 -3.3560076726906E-02  3.9342264872782E-02
   219  2.1800000000000E+00 -3.0800895499298E-02  3.4074679960248E-02
   220  2.1900000000000E+00 -2.8153218857913E-02  2.9343356653783E-02
   221  2.2000000000000E+00 -2.5618862859072E-02  2.5115836657454E-02
   222  2.2100000000000E+00 -2.3199360622630E-02  2.1359198402298E-02
   223  2.2200000000000E+00 -2.0895992857833E-02  1.8040300867034E-02
   224  2.2300000000000E+00 -1.8709818559905E-02  1.5126026134913E-02
   225  2.2400000000000E+00 -1.6641705693470E-02  1.2583519667831E-02
   226  2.2500000000000E+00 -1.4692361088259E-02  1.0380423261279E-02
   227  2.2600000000000E+00 -1.2862359966889E-02  8.4851046604695E-03
   228  2.2700000000000E+00 -1.1152179618775E-02  6.8669037484944E-03
   229  2.2800000000000E+00 -9.5622102112096E-03  5.4962699802784E-03
   230  2.2900000000000E+00 -8.0927643292476E-03  4.3447751726777E-03
   231  2.3000000000000E+00 -6.7441195514044E-03  3.3853183489180E-03
   232  2.3100000000000E+00 -5.5167232800134E-03  2.5935757415741E-03
   233  2.3200000000000E+00 -4.4110576456008E-03  1.9473001891972E-03
   234  2.3300000000000E+00 -3.4275646317425E-03  1.4259243097312E-03
   235  2.3400000000000E+00 -2.5667087726106E-03  1.0109341849554E-03
   236  2.3500000000000E+00 -1.8289882813152E-03  6.8596168012859E-04
   237  2.3600000000000E+00 -1.2149543232396E-03  4.3691677445823E-04
   238  2.3700000000000E+00 -7.2551590874522E-04  2.5218868284639E-04
   239  2.3800000000000E+00 -3.5903288343539E-04  1.2175731922843E-04
   240  2.3900000000000E+00 -1.2204391591525E-04  4.0815124041713E-05
   241  2.4000000000000E+00 -1.5186163977251E-05  5.1470828625541E-06
   242  2.4100000000000E+00  6.4238913745003E-06 -2.0289295249460E-06
   243  2.4200000000000E+00 -9.1021936183502E-07  2.9184822586709E-07
   244  2.4300 -0.  0.
   245  2.4400  0. -0.
   246  2.4500  0. -0.
   247  2.4600  0. -0.
   248  2.4700  0.  0.
   249  2.4800  0.  0.
   250  2.4900  0.  0.
   251  2.5000  0.  0.
   252  2.5100  0.  0.
   253  2.5200  0.  0.
   254  2.5300  0.  0.
   255  2.5400  0.  0.
   256  2.5500  0.  0.
   257  2.5600  0.  0.
   258  2.5700  0.  0.
   259  2.5800  0.  0.
   260  2.5900  0.  0.
   261  2.6000  0.  0.
   262  2.6100  0.  0.
   263  2.6200  0.  0.
   264  2.6300  0.  0.
   265  2.6400  0.  0.
   266  2.6500  0.  0.
   267  2.6600  0.  0.
   268  2.6700  0.  0.
   269  2.6800  0.  0.
   270  2.6900  0.  0.
   271  2.7000  0.  0.
   272  2.7100  0.  0.
   273  2.7200  0.  0.
   274  2.7300  0.  0.
   275  2.7400  0.  0.
   276  2.7500  0.  0.
   277  2.7600  0.  0.
   278  2.7700  0.  0.
   279  2.7800  0.  0.
   280  2.7900  0.  0.
   281  2.8000  0.  0.
   282  2.8100  0.  0.
   283  2.8200  0.  0.
   284  2.8300  0.  0.
   285  2.8400  0.  0.
   286  2.8500  0.  0.
   287  2.8600  0.  0.
   288  2.8700  0.  0.
   289  2.8800  0.  0.
   290  2.8900  0.  0.
   291  2.9000  0.  0.
   292  2.9100  0.  0.
   293  2.9200  0.  0.
   294  2.9300  0.  0.
   295  2.9400  0.  0.
   296  2.9500  0.  0.
   297  2.9600  0.  0.
   298  2.9700  0.  0.
   299  2.9800  0.  0.
   300  2.9900  0.  0.
   301  3.0000  0.  0.
   302  3.0100  0.  0.
   303  3.0200  0.  0.
   304  3.0300  0.  0.
   305  3.0400  0.  0.
   306  3.0500  0.  0.
   307  3.0600  0.  0.
   308  3.0700  0.  0.
   309  3.0800  0.  0.
   310  3.0900  0.  0.
   311  3.1000  0.  0.
   312  3.1100  0.  0.
   313  3.1200  0.  0.
   314  3.1300  0.  0.
   315  3.1400  0.  0.
   316  3.1500  0.  0.
   317  3.1600  0.  0.
   318  3.1700  0.  0.
   319  3.1800  0.  0.
   320  3.1900  0.  0.
   321  3.2000  0.  0.
   322  3.2100  0.  0.
   323  3.2200  0.  0.
   324  3.2300  0.  0.
   325  3.2400  0.  0.
   326  3.2500  0.  0.
   327  3.2600  0.  0.
   328  3.2700  0.  0.
   329  3.2800  0.  0.
   330  3.2900  0.  0.
   331  3.3000  0.  0.
   332  3.3100  0.  0.
   333  3.3200  0.  0.
   334  3.3300  0.  0.
   335  3.3400  0.  0.
   336  3.3500  0.  0.
   337  3.3600  0.  0.
   338  3.3700  0.  0.
   339  3.3800  0.  0.
   340  3.3900  0.  0.
   341  3.4000  0.  0.
   342  3.4100  0.  0.
   343  3.4200  0.  0.
   344  3.4300  0.  0.
   345  3.4400  0.  0.
   346  3.4500  0.  0.
   347  3.4600  0.  0.
   348  3.4700  0.  0.
   349  3.4800  0.  0.
   350  3.4900  0.  0.
   351  3.5000  0.  0.
   352  3.5100  0.  0.
   353  3.5200  0.  0.
   354  3.5300  0.  0.
   355  3.5400  0.  0.
   356  3.5500  0.  0.
   357  3.5600  0.  0.
   358  3.5700  0.  0.
   359  3.5800  0.  0.
   360  3.5900  0.  0.
   361  3.6000  0.  0.
   362  3.6100  0.  0.
   363  3.6200  0.  0.
   364  3.6300  0.  0.
   365  3.6400  0.  0.
   366  3.6500  0.  0.
   367  3.6600  0.  0.
   368  3.6700  0.  0.
   369  3.6800  0.  0.
   370  3.6900  0.  0.
   371  3.7000  0.  0.
   372  3.7100  0.  0.
   373  3.7200  0.  0.
   374  3.7300  0.  0.
   375  3.7400  0.  0.
   376  3.7500  0.  0.
   377  3.7600  0.  0.
   378  3.7700  0.  0.
   379  3.7800  0.  0.
   380  3.7900  0.  0.
   381  3.8000  0.  0.
   382  3.8100  0.  0.
   383  3.8200  0.  0.
   384  3.8300  0.  0.
   385  3.8400  0.  0.
   386  3.8500  0.  0.
   387  3.8600  0.  0.
   388  3.8700  0.  0.
   389  3.8800  0.  0.
   390  3.8900  0.  0.
   391  3.9000  0.  0.
   392  3.9100  0.  0.
   393  3.9200  0.  0.
   394  3.9300  0.  0.
   395  3.9400  0.  0.
   396  3.9500  0.  0.
   397  3.9600  0.  0.
   398  3.9700  0.  0.
   399  3.9800  0.  0.
   400  3.9900  0.  0.
   401  4.0000  0.  0.
   402  4.0100  0.  0.
   403  4.0200  0.  0.
   404  4.0300  0.  0.
   405  4.0400  0.  0.
   406  4.0500  0.  0.
   407  4.0600  0.  0.
   408  4.0700  0.  0.
   409  4.0800  0.  0.
   410  4.0900  0.  0.
   411  4.1000  0.  0.
   412  4.1100  0.  0.
   413  4.1200  0.  0.
   414  4.1300  0.  0.
   415  4.1400  0.  0.
   416  4.1500  0.  0.
   417  4.1600  0.  0.
   418  4.1700  0.  0.
   419  4.1800  0.  0.
   420  4.1900  0.  0.
   421  4.2000  0.  0.
   422  4.2100  0.  0.
   423  4.2200  0.  0.
   424  4.2300  0.  0.
   425  4.2400  0.  0.
   426  4.2500  0.  0.
   427  4.2600  0.  0.
   428  4.2700  0.  0.
   429  4.2800  0.  0.
   430  4.2900  0.  0.
   431  4.3000  0.  0.
   432  4.3100  0.  0.
   433  4.3200  0.  0.
   434  4.3300  0.  0.
   435  4.3400  0.  0.
   436  4.3500  0.  0.
   437  4.3600  0.  0.
   438  4.3700  0.  0.
   439  4.3800  0.  0.
   440  4.3900  0.  0.
   441  4.4000  0.  0.
   442  4.4100  0.  0.
   443  4.4200  0.  0.
   444  4.4300  0.  0.
   445  4.4400  0.  0.
   446  4.4500  0.  0.
   447  4.4600  0.  0.
   448  4.4700  0.  0.
   449  4.4800  0.  0.
   450  4.4900  0.  0.
   451  4.5000  0.  0.
   452  4.5100  0.  0.
   453  4.5200  0.  0.
   454  4.5300  0.  0.
   455  4.5400  0.  0.
   456  4.5500  0.  0.
   457  4.5600  0.  0.
   458  4.5700  0.  0.
   459  4.5800  0.  0.
   460  4.5900  0.  0.
   461  4.6000  0.  0.
   462  4.6100  0.  0.
   463  4.6200  0.  0.
   464  4.6300  0.  0.
   465  4.6400  0.  0.
   466  4.6500  0.  0.
   467  4.6600  0.  0.
   468  4.6700  0.  0.
   469  4.6800  0.  0.
   470  4.6900  0.  0.
   471  4.7000  0.  0.
   472  4.7100  0.  0.
   473  4.7200  0.  0.
   474  4.7300  0.  0.
   475  4.7400  0.  0.
   476  4.7500  0.  0.
   477  4.7600  0.  0.
   478  4.7700  0.  0.
   479  4.7800  0.  0.
   480  4.7900  0.  0.
   481  4.8000  0.  0.
   482  4.8100  0.  0.
   483  4.8200  0.  0.
   484  4.8300  0.  0.
   485  4.8400  0.  0.
   486  4.8500  0.  0.
   487  4.8600  0.  0.
   488  4.8700  0.  0.
   489  4.8800  0.  0.
   490  4.8900  0.  0.
   491  4.9000  0.  0.
   492  4.9100  0.  0.
   493  4.9200  0.  0.
   494  4.9300  0.  0.
   495  4.9400  0.  0.
   496  4.9500  0.  0.
   497  4.9600  0.  0.
   498  4.9700  0.  0.
   499  4.9800  0.  0.
   500  4.9900  0.  0.
   501  5.0000  0.  0.
   502  5.0100  0.  0.
   503  5.0200  0.  0.
   504  5.0300  0.  0.
   505  5.0400  0.  0.
   506  5.0500  0.  0.
   507  5.0600  0.  0.
   508  5.0700  0.  0.
   509  5.0800  0.  0.
   510  5.0900  0.  0.
   511  5.1000  0.  0.
   512  5.1100  0.  0.
   513  5.1200  0.  0.
   514  5.1300  0.  0.
   515  5.1400  0.  0.
   516  5.1500  0.  0.
   517  5.1600  0.  0.
   518  5.1700  0.  0.
   519  5.1800  0.  0.
   520  5.1900  0.  0.
   521  5.2000  0.  0.
   522  5.2100  0.  0.
   523  5.2200  0.  0.
   524  5.2300  0.  0.
   525  5.2400  0.  0.
   526  5.2500  0.  0.
   527  5.2600  0.  0.
   528  5.2700  0.  0.
   529  5.2800  0.  0.
   530  5.2900  0.  0.
   531  5.3000  0.  0.
   532  5.3100  0.  0.
   533  5.3200  0.  0.
   534  5.3300  0.  0.
   535  5.3400  0.  0.
   536  5.3500  0.  0.
   537  5.3600  0.  0.
   538  5.3700  0.  0.
   539  5.3800  0.  0.
   540  5.3900  0.  0.
   541  5.4000  0.  0.
   542  5.4100  0.  0.
   543  5.4200  0.  0.
   544  5.4300  0.  0.
   545  5.4400  0.  0.
   546  5.4500  0.  0.
   547  5.4600  0.  0.
   548  5.4700  0.  0.
   549  5.4800  0.  0.
   550  5.4900  0.  0.
   551  5.5000  0.  0.
   552  5.5100  0.  0.
   553  5.5200  0.  0.
   554  5.5300  0.  0.
   555  5.5400  0.  0.
   556  5.5500  0.  0.
   557  5.5600  0.  0.
   558  5.5700  0.  0.
   559  5.5800  0.  0.
   560  5.5900  0.  0.
   561  5.6000  0.  0.
   562  5.6100  0.  0.
   563  5.6200  0.  0.
   564  5.6300  0.  0.
   565  5.6400  0.  0.
   566  5.6500  0.  0.
   567  5.6600  0.  0.
   568  5.6700  0.  0.
   569  5.6800  0.  0.
   570  5.6900  0.  0.
   571  5.7000  0.  0.
   572  5.7100  0.  0.
   573  5.7200  0.  0.
   574  5.7300  0.  0.
   575  5.7400  0.  0.
   576  5.7500  0.  0.
   577  5.7600  0.  0.
   578  5.7700  0.  0.
   579  5.7800  0.  0.
   580  5.7900  0.  0.
   581  5.8000  0.  0.
   582  5.8100  0.  0.
   583  5.8200  0.  0.
   584  5.8300  0.  0.
   585  5.8400  0.  0.
   586  5.8500  0.  0.
   587  5.8600  0.  0.
   588  5.8700  0.  0.
   589  5.8800  0.  0.
   590  5.8900  0.  0.
   591  5.9000  0.  0.
   592  5.9100  0.  0.
   593  5.9200  0.  0.
   594  5.9300  0.  0.
   595  5.9400  0.  0.
   596  5.9500  0.  0.
   597  5.9600  0.  0.
   598  5.9700  0.  0.
   599  5.9800  0.  0.
   600  5.9900  0.  0.
   1                         1.0266355804339E+00  2.5139552318911E-01
     1  0.0000000000000E+00 -4.9505649579729E-11  4.8836809596331E-11
     2  1.0000000000000E-02 -5.2806700421558E-04  8.6735634903191E-04
     3  2.0000000000000E-02 -2.1099125504434E-03  3.4668000226003E-03
     4  3.0000000000000E-02 -4.7384782571146E-03  7.7904630412788E-03
     5  4.0000000000000E-02 -8.4020268553252E-03  1.3825259218299E-02
     6  5.0000000000000E-02 -1.3084182150955E-02  2.1552924740532E-02
     7  6.0000000000000E-02 -1.8763984794938E-02  3.0950074807248E-02
     8  7.0000000000000E-02 -2.5415963685654E-02  4.1988276152629E-02
     9  8.0000000000000E-02 -3.3010222777885E-02  5.4634135229146E-02
    10  9.0000000000000E-02 -4.1512543023997E-02  6.8849401780562E-02
    11  1.0000000000000E-01 -5.0884499124953E-02  8.4591087485910E-02
    12  1.1000000000000E-01 -6.1083590721636E-02  1.0181159930913E-01
    13  1.2000000000000E-01 -7.2063387610840E-02  1.2045888714340E-01
    14  1.3000000000000E-01 -8.3773688525471E-02  1.4047660529488E-01
    15  1.4000000000000E-01 -9.6160692974801E-02  1.6180428730737E-01
    16  1.5000000000000E-01 -1.0916718559854E-01  1.8437753358750E-01
    17  1.6000000000000E-01 -1.2273273244795E-01  2.0812821125030E-01
    18  1.7000000000000E-01 -1.3679388856824E-01  2.3298466556579E-01
    19  1.8000000000000E-01 -1.5128441621954E-01  2.5887194235122E-01
    20  1.9000000000000E-01 -1.6613551303848E-01  2.8571202061798E-01
    21  2.0000000000000E-01 -1.8127604940943E-01  3.1342405474995E-01
    22  2.1000000000000E-01 -1.9663281428355E-01  3.4192462545879E-01
    23  2.2000000000000E-01 -2.1213076865481E-01  3.7112799873353E-01
    24  2.3000000000000E-01 -2.2769330587634E-01  4.0094639197524E-01
    25  2.4000000000000E-01 -2.4324251797593E-01  4.3129024648385E-01
    26  2.5000000000000E-01 -2.5869946710888E-01  4.6206850544289E-01
    27  2.6000000000000E-01 -2.7398446126692E-01  4.9318889652900E-01
    28  2.7000000000000E-01 -2.8901733334646E-01  5.2455821825689E-01
    29  2.8000000000000E-01 -3.0371772266586E-01  5.5608262915714E-01
    30  2.9000000000000E-01 -3.1800535801095E-01  5.8766793887330E-01
    31  3.0000000000000E-01 -3.3180034128050E-01  6.1921990025717E-01
    32  3.1000000000000E-01 -3.4502343079869E-01  6.5064450153584E-01
    33  3.2000000000000E-01 -3.5759632335973E-01  6.8184825762225E-01
    34  3.3000000000000E-01 -3.6944193407125E-01  7.1273849964177E-01
    35  3.4000000000000E-01 -3.8048467306725E-01  7.4322366175089E-01
    36  3.5000000000000E-01 -3.9065071816864E-01  7.7321356433140E-01
    37  3.6000000000000E-01 -3.9986828257972E-01  8.0261969265265E-01
    38  3.7000000000000E-01 -4.0806787672238E-01  8.3135547010732E-01
    39  3.8000000000000E-01 -4.1518256332588E-01  8.5933652514212E-01
    40  3.9000000000000E-01 -4.2114820490952E-01  8.8648095102297E-01
    41  4.0000000000000E-01 -4.2590370281763E-01  9.1270955759582E-01
    42  4.1000000000000E-01 -4.2939122699142E-01  9.3794611422873E-01
    43  4.2000000000000E-01 -4.3155643569003E-01  9.6211758314781E-01
    44  4.3000000000000E-01 -4.3234868440403E-01  9.8515434240925E-01
    45  4.4000000000000E-01 -4.3172122323764E-01  1.0069903977825E+00
    46  4.5000000000000E-01 -4.2963138207205E-01  1.0275635828542E+00
    47  4.6000000000000E-01 -4.2604074286075E-01  1.0468157467007E+00
    48  4.7000000000000E-01 -4.2091529844823E-01  1.0646929285157E+00
    49  4.8000000000000E-01 -4.1422559734695E-01  1.0811455186224E+00
    50  4.9000000000000E-01 -4.0594687395219E-01  1.0961284053443E+00
    51  5.0000000000000E-01 -3.9605916372210E-01  1.1096011072529E+00
    52  5.1000000000000E-01 -3.8454740289887E-01  1.1215278903610E+00
    53  5.2000000000000E-01 -3.7140151239803E-01  1.1318778698783E+00
    54  5.3000000000000E-01 -3.5661646554512E-01  1.1406250961974E+00
    55  5.4000000000000E-01 -3.4019233939242E-01  1.1477486248324E+00
    56  5.5000000000000E-01 -3.2213434940368E-01  1.1532325700828E+00
    57  5.6000000000000E-01 -3.0245286735018E-01  1.1570661422543E+00
    58  5.7000000000000E-01 -2.8116342231856E-01  1.1592436683197E+00
    59  5.8000000000000E-01 -2.5828668478783E-01  1.1597645959615E+00
    60  5.9000000000000E-01 -2.3384843379071E-01  1.1586334809945E+00
    61  6.0000000000000E-01 -2.0787950723262E-01  1.1558599582216E+00